# vtk DataFile Version 2.0
Generated by image_util write_vtk()
ASCII
DATASET STRUCTURED_POINTS
DIMENSIONS 325 335 1
ORIGIN 0 0 0
SPACING 1 1 1
POINT_DATA 108875
SCALARS intensity float 1
LOOKUP_TABLE default
4.103159e+01 3.945202e+01 3.770859e+01 3.581839e+01 3.380029e+01 3.167464e+01 2.946319e+01 2.718884e+01 2.487544e+01 2.254755e+01 2.023027e+01 1.794880e+01 1.572844e+01 1.359406e+01 1.157003e+01 9.679833e+00 7.945798e+00 6.388895e+00 5.028411e+00 3.881736e+00 2.964113e+00 2.288410e+00 1.864957e+00 1.701347e+00 1.802296e+00 2.169523e+00 2.801666e+00 3.694220e+00 4.839531e+00 6.226788e+00 7.842084e+00 9.668504e+00 1.168626e+01 1.387280e+01 1.620306e+01 1.864966e+01 2.118315e+01 2.377234e+01 2.638459e+01 2.898620e+01 3.154275e+01 3.401951e+01 3.638187e+01 3.859580e+01 4.062830e+01 4.244793e+01 4.402516e+01 4.533299e+01 4.634743e+01 4.704784e+01 4.741758e+01 4.744436e+01 4.712066e+01 4.644405e+01 4.541761e+01 4.405006e+01 4.235602e+01 4.035601e+01 3.807650e+01 3.554972e+01 3.281342e+01 2.991050e+01 2.688845e+01 2.379870e+01 2.069584e+01 1.763667e+01 1.467909e+01 1.188107e+01 9.299263e+00 6.987749e+00 4.996671e+00 3.370887e+00 2.148663e+00 1.360417e+00 1.027622e+00 1.161854e+00 1.764055e+00 2.824043e+00 4.320302e+00 6.220112e+00 8.479961e+00 1.104639e+01 1.385711e+01 1.684249e+01 1.992738e+01 2.303320e+01 2.608026e+01 2.899022e+01 3.168871e+01 3.410788e+01 3.618894e+01 3.788452e+01 3.916068e+01 3.999866e+01 4.039614e+01 4.036800e+01 3.994645e+01 3.918061e+01 3.813546e+01 3.689001e+01 3.553511e+01 3.417049e+01 3.290144e+01 3.183512e+01 3.107662e+01 3.072489e+01 3.086876e+01 3.158320e+01 3.292584e+01 3.493415e+01 3.762318e+01 4.098410e+01 4.498359e+01 4.956413e+01 5.464533e+01 6.012594e+01 6.588696e+01 7.179535e+01 7.770837e+01 8.347849e+01 8.895834e+01 9.400591e+01 9.848959e+01 1.022926e+02 1.053172e+02 1.074879e+02 1.087537e+02 1.090899e+02 1.084979e+02 1.070049e+02 1.046620e+02 1.015413e+02 9.773289e+01 9.334003e+01 8.847530e+01 8.325539e+01 7.779661e+01 7.221032e+01 6.659922e+01 6.105400e+01 5.565076e+01 5.044982e+01 4.549512e+01 4.081452e+01 3.642138e+01 3.231676e+01 2.849193e+01 2.493184e+01 2.161828e+01 1.853349e+01 1.566280e+01 1.299754e+01 1.053656e+01 8.287416e+00 6.266452e+00 4.497848e+00 3.011967e+00 1.842781e+00 1.024765e+00 5.893124e-01 5.610459e-01 9.542276e-01 1.769577e+00 2.991717e+00 4.587584e+00 6.505816e+00 8.677399e+00 1.101755e+01 1.342880e+01 1.580517e+01 1.803726e+01 2.001801e+01 2.164879e+01 2.284548e+01 2.354413e+01 2.370592e+01 2.332101e+01 2.241103e+01 2.102986e+01 1.926282e+01 1.722388e+01 1.505128e+01 1.290147e+01 1.094177e+01 9.341967e+00 8.265476e+00 7.860242e+00 8.250097e+00 9.526933e+00 1.174421e+01 1.491210e+01 1.899475e+01 2.390967e+01 2.952950e+01 3.568614e+01 4.217698e+01 4.877312e+01 5.522915e+01 6.129392e+01 6.672208e+01 7.128551e+01 7.478435e+01 7.705666e+01 7.798693e+01 7.751215e+01 7.562595e+01 7.237975e+01 6.788174e+01 6.229281e+01 5.582051e+01 4.871032e+01 4.123587e+01 3.368724e+01 2.635896e+01 1.953762e+01 1.348986e+01 8.451625e+00 4.618428e+00 2.137702e+00 1.103292e+00 1.552324e+00 3.464527e+00 6.764050e+00 1.132349e+01 1.697024e+01 2.349430e+01 3.065756e+01 3.820398e+01 4.587024e+01 5.339607e+01 6.053430e+01 6.706001e+01 7.277795e+01 7.752897e+01 8.119411e+01 8.369731e+01 8.500575e+01 8.512882e+01 8.411509e+01 8.204800e+01 7.904034e+01 7.522800e+01 7.076302e+01 6.580663e+01 6.052231e+01 5.506953e+01 4.959782e+01 4.424210e+01 3.911887e+01 3.432359e+01 2.992921e+01 2.598581e+01 2.252129e+01 1.954303e+01 1.704020e+01 1.498673e+01 1.334458e+01 1.206723e+01 1.110310e+01 1.039887e+01 9.902349e+00 9.564960e+00 9.343688e+00 9.202453e+00 9.112846e+00 9.054365e+00 9.014098e+00 8.985964e+00 8.969639e+00 8.969191e+00 8.991635e+00 9.045408e+00 9.138951e+00 9.279454e+00 9.471773e+00 9.717693e+00 1.001547e+01 1.035969e+01 1.074142e+01 1.114872e+01 1.156727e+01 1.198126e+01 1.237443e+01 1.273104e+01 1.303696e+01 1.328059e+01 1.345367e+01 1.355194e+01 1.357553e+01 1.352915e+01 1.342202e+01 1.326750e+01 1.308263e+01 1.288733e+01 1.270350e+01 1.255406e+01 1.246179e+01 1.244831e+01 1.253297e+01 1.273194e+01 1.305731e+01 1.351648e+01 1.411162e+01 1.483942e+01 1.569107e+01 1.665236e+01 1.770416e+01 1.882285e+01 1.998118e+01 2.114909e+01 2.229464e+01 2.338510e+01 2.438800e+01 2.527211e+01 2.600851e+01 2.657141e+01 2.693905e+01 2.709423e+01 2.702496e+01 2.672469e+01 2.619262e+01 2.543361e+01 2.445811e+01 2.328191e+01 2.192566e+01 4.434002e+01 4.301962e+01 4.151092e+01 3.982806e+01 3.798702e+01 3.600567e+01 3.390339e+01 3.170116e+01 2.942119e+01 2.708680e+01 2.472208e+01 2.235187e+01 2.000132e+01 1.769571e+01 1.546019e+01 1.331951e+01 1.129766e+01 9.417727e+00 7.701555e+00 6.169428e+00 4.839884e+00 3.729472e+00 2.852446e+00 2.220634e+00 1.843208e+00 1.726525e+00 1.873995e+00 2.285967e+00 2.959661e+00 3.889125e+00 5.065231e+00 6.475687e+00 8.105147e+00 9.935240e+00 1.194479e+01 1.410995e+01 1.640441e+01 1.879965e+01 2.126528e+01 2.376921e+01 2.627819e+01 2.875799e+01 3.117394e+01 3.349139e+01 3.567592e+01 3.769414e+01 3.951389e+01 4.110496e+01 4.243948e+01 4.349243e+01 4.424218e+01 4.467097e+01 4.476537e+01 4.451672e+01 4.392154e+01 4.298186e+01 4.170544e+01 4.010608e+01 3.820364e+01 3.602401e+01 3.359904e+01 3.096631e+01 2.816871e+01 2.525387e+01 2.227357e+01 1.928286e+01 1.633914e+01 1.350100e+01 1.082712e+01 8.374876e+00 6.199028e+00 4.350285e+00 2.873906e+00 1.808336e+00 1.183913e+00 1.021707e+00 1.332537e+00 2.116200e+00 3.360969e+00 5.043385e+00 7.128376e+00 9.569740e+00 1.231100e+01 1.528660e+01 1.842350e+01 2.164306e+01 2.486325e+01 2.800110e+01 3.097529e+01 3.370887e+01 3.613199e+01 3.818451e+01 3.981844e+01 4.100013e+01 4.171199e+01 4.195386e+01 4.174369e+01 4.111774e+01 4.013000e+01 3.885113e+01 3.736648e+01 3.577368e+01 3.417960e+01 3.269676e+01 3.143947e+01 3.051963e+01 3.004247e+01 3.010240e+01 3.077902e+01 3.213357e+01 3.420591e+01 3.701223e+01 4.054352e+01 4.476503e+01 4.961659e+01 5.501391e+01 6.085096e+01 6.700308e+01 7.333094e+01 7.968507e+01 8.591091e+01 9.185423e+01 9.736623e+01 1.023088e+02 1.065594e+02 1.100149e+02 1.125953e+02 1.142457e+02 1.149381e+02 1.146714e+02 1.134708e+02 1.113859e+02 1.084877e+02 1.048650e+02 1.006205e+02 9.586580e+01 9.071671e+01 8.528853e+01 7.969168e+01 7.402771e+01 6.838628e+01 6.284273e+01 5.745686e+01 5.227248e+01 4.731822e+01 4.260888e+01 3.814785e+01 3.392995e+01 2.994467e+01 2.617949e+01 2.262326e+01 1.926894e+01 1.611597e+01 1.317188e+01 1.045291e+01 7.983824e+00 5.796609e+00 3.928438e+00 2.418819e+00 1.306119e+00 6.238593e-01 3.968458e-01 6.375719e-01 1.343112e+00 2.492774e+00 4.046752e+00 5.945938e+00 8.113027e+00 1.045485e+01 1.286603e+01 1.523367e+01 1.744288e+01 1.938304e+01 2.095409e+01 2.207286e+01 2.267879e+01 2.273884e+01 2.225102e+01 2.124652e+01 1.979009e+01 1.797848e+01 1.593709e+01 1.381485e+01 1.177744e+01 9.999331e+00 8.654791e+00 7.908592e+00 7.906623e+00 8.767105e+00 1.057283e+01 1.336488e+01 1.713824e+01 2.183960e+01 2.736748e+01 3.357481e+01 4.027398e+01 4.724388e+01 5.423907e+01 6.100026e+01 6.726584e+01 7.278384e+01 7.732372e+01 8.068745e+01 8.271934e+01 8.331384e+01 8.242158e+01 8.005247e+01 7.627625e+01 7.122065e+01 6.506625e+01 5.803964e+01 5.040383e+01 4.244752e+01 3.447286e+01 2.678308e+01 1.966953e+01 1.339991e+01 8.207204e+00 4.280591e+00 1.758057e+00 7.215590e-01 1.194597e+00 3.142295e+00 6.474053e+00 1.104847e+01 1.668023e+01 2.314872e+01 3.020792e+01 3.759681e+01 4.505027e+01 5.230958e+01 5.913227e+01 6.530102e+01 7.063069e+01 7.497417e+01 7.822600e+01 8.032416e+01 8.125014e+01 8.102687e+01 7.971520e+01 7.740916e+01 7.422996e+01 7.031929e+01 6.583234e+01 6.093075e+01 5.577569e+01 5.052176e+01 4.531150e+01 4.027094e+01 3.550632e+01 3.110192e+01 2.711905e+01 2.359623e+01 2.055031e+01 1.797853e+01 1.586115e+01 1.416466e+01 1.284529e+01 1.185251e+01 1.113251e+01 1.063138e+01 1.029789e+01 1.008577e+01 9.955400e+00 9.874898e+00 9.820633e+00 9.777146e+00 9.736598e+00 9.697762e+00 9.664785e+00 9.645673e+00 9.650705e+00 9.690915e+00 9.776625e+00 9.916203e+00 1.011511e+01 1.037518e+01 1.069433e+01 1.106650e+01 1.148196e+01 1.192791e+01 1.238920e+01 1.284936e+01 1.329159e+01 1.369993e+01 1.406018e+01 1.436093e+01 1.459431e+01 1.475653e+01 1.484831e+01 1.487486e+01 1.484584e+01 1.477488e+01 1.467903e+01 1.457786e+01 1.449265e+01 1.444523e+01 1.445695e+01 1.454761e+01 1.473441e+01 1.503105e+01 1.544700e+01 1.598683e+01 1.664989e+01 1.743009e+01 1.831605e+01 1.929120e+01 2.033441e+01 2.142057e+01 2.252139e+01 2.360630e+01 2.464357e+01 2.560117e+01 2.644801e+01 2.715485e+01 2.769530e+01 2.804661e+01 2.819051e+01 2.811367e+01 2.780823e+01 2.727200e+01 2.650861e+01 2.552733e+01 2.434305e+01 2.297572e+01 4.721331e+01 4.618809e+01 4.495566e+01 4.352688e+01 4.191456e+01 4.013358e+01 3.820065e+01 3.613417e+01 3.395416e+01 3.168203e+01 2.934037e+01 2.695280e+01 2.454366e+01 2.213790e+01 1.976070e+01 1.743726e+01 1.519259e+01 1.305111e+01 1.103647e+01 9.171224e+00 7.476593e+00 5.972176e+00 4.675680e+00 3.602701e+00 2.766491e+00 2.177762e+00 1.844484e+00 1.771751e+00 1.961635e+00 2.413117e+00 3.121998e+00 4.080892e+00 5.279222e+00 6.703268e+00 8.336268e+00 1.015851e+01 1.214752e+01 1.427821e+01 1.652319e+01 1.885296e+01 2.123624e+01 2.364031e+01 2.603143e+01 2.837511e+01 3.063664e+01 3.278160e+01 3.477615e+01 3.658770e+01 3.818536e+01 3.954044e+01 4.062703e+01 4.142246e+01 4.190786e+01 4.206871e+01 4.189515e+01 4.138256e+01 4.053185e+01 3.934974e+01 3.784910e+01 3.604894e+01 3.397447e+01 3.165705e+01 2.913392e+01 2.644777e+01 2.364629e+01 2.078142e+01 1.790859e+01 1.508564e+01 1.237179e+01 9.826353e+00 7.507378e+00 5.470257e+00 3.766252e+00 2.441039e+00 1.533275e+00 1.073256e+00 1.081718e+00 1.568794e+00 2.533228e+00 3.961842e+00 5.829319e+00 8.098343e+00 1.072011e+01 1.363521e+01 1.677491e+01 2.006280e+01 2.341680e+01 2.675148e+01 2.998059e+01 3.301983e+01 3.578968e+01 3.821824e+01 4.024393e+01 4.181815e+01 4.290741e+01 4.349527e+01 4.358355e+01 4.319324e+01 4.236451e+01 4.115618e+01 3.964445e+01 3.792091e+01 3.608991e+01 3.426534e+01 3.256694e+01 3.111604e+01 3.003136e+01 2.942439e+01 2.939510e+01 3.002777e+01 3.138725e+01 3.351593e+01 3.643123e+01 4.012416e+01 4.455870e+01 4.967223e+01 5.537696e+01 6.156231e+01 6.809832e+01 7.483971e+01 8.163068e+01 8.831017e+01 9.471726e+01 1.006968e+02 1.061048e+02 1.108128e+02 1.147128e+02 1.177201e+02 1.197761e+02 1.208495e+02 1.209366e+02 1.200599e+02 1.182671e+02 1.156276e+02 1.122283e+02 1.081703e+02 1.035636e+02 9.852214e+01 9.315931e+01 8.758359e+01 8.189455e+01 7.618017e+01 7.051425e+01 6.495554e+01 5.954766e+01 5.431962e+01 4.928784e+01 4.445836e+01 3.982989e+01 3.539718e+01 3.115413e+01 2.709709e+01 2.322755e+01 1.955418e+01 1.609408e+01 1.287314e+01 9.925300e+00 7.291087e+00 5.015015e+00 3.142407e+00 1.715720e+00 7.705311e-01 3.316119e-01 4.093184e-01 9.965888e-01 2.066827e+00 3.572886e+00 5.447330e+00 7.603986e+00 9.940887e+00 1.234447e+01 1.469473e+01 1.687142e+01 1.876053e+01 2.026102e+01 2.129128e+01 2.179490e+01 2.174534e+01 2.114935e+01 2.004859e+01 1.851935e+01 1.667052e+01 1.463943e+01 1.258594e+01 1.068502e+01 9.118054e+00 8.063334e+00 7.686250e+00 8.129688e+00 9.505133e+00 1.188501e+01 1.529669e+01 1.971863e+01 2.507876e+01 3.125541e+01 3.808083e+01 4.534704e+01 5.281393e+01 6.021920e+01 6.728973e+01 7.375365e+01 7.935293e+01 8.385531e+01 8.706554e+01 8.883510e+01 8.906952e+01 8.773397e+01 8.485565e+01 8.052361e+01 7.488567e+01 6.814273e+01 6.054057e+01 5.235978e+01 4.390406e+01 3.548751e+01 2.742133e+01 2.000128e+01 1.349536e+01 8.133119e+00 4.096778e+00 1.514482e+00 4.559695e-01 9.309674e-01 2.890071e+00 6.228244e+00 1.079043e+01 1.637930e+01 2.276451e+01 2.969291e+01 3.689948e+01 4.411833e+01 5.109325e+01 5.758730e+01 6.339146e+01 6.833120e+01 7.227185e+01 7.512139e+01 7.683188e+01 7.739854e+01 7.685718e+01 7.528020e+01 7.277115e+01 6.945844e+01 6.548845e+01 6.101824e+01 5.620860e+01 5.121729e+01 4.619304e+01 4.127052e+01 3.656619e+01 3.217561e+01 2.817158e+01 2.460381e+01 2.149944e+01 1.886468e+01 1.668714e+01 1.493888e+01 1.357978e+01 1.256115e+01 1.182934e+01 1.132917e+01 1.100697e+01 1.081322e+01 1.070460e+01 1.064540e+01 1.060839e+01 1.057499e+01 1.053496e+01 1.048557e+01 1.043043e+01 1.037801e+01 1.034005e+01 1.032987e+01 1.036080e+01 1.044477e+01 1.059105e+01 1.080541e+01 1.108953e+01 1.144075e+01 1.185219e+01 1.231318e+01 1.280990e+01 1.332629e+01 1.384510e+01 1.434895e+01 1.482147e+01 1.524832e+01 1.561814e+01 1.592321e+01 1.616009e+01 1.632976e+01 1.643775e+01 1.649381e+01 1.651156e+01 1.650770e+01 1.650121e+01 1.651240e+01 1.656179e+01 1.666908e+01 1.685211e+01 1.712582e+01 1.750149e+01 1.798597e+01 1.858122e+01 1.928404e+01 2.008596e+01 2.097334e+01 2.192789e+01 2.292702e+01 2.394473e+01 2.495239e+01 2.591966e+01 2.681562e+01 2.760977e+01 2.827299e+01 2.877868e+01 2.910354e+01 2.922841e+01 2.913888e+01 2.882586e+01 2.828586e+01 2.752117e+01 2.653990e+01 2.535573e+01 2.398773e+01 4.958703e+01 4.888305e+01 4.795890e+01 4.682190e+01 4.548156e+01 4.394944e+01 4.223915e+01 4.036618e+01 3.834787e+01 3.620316e+01 3.395254e+01 3.161775e+01 2.922177e+01 2.678837e+01 2.434210e+01 2.190787e+01 1.951086e+01 1.717610e+01 1.492829e+01 1.279155e+01 1.078903e+01 8.942710e+00 7.273114e+00 5.799044e+00 4.537331e+00 3.502577e+00 2.706970e+00 2.160052e+00 1.868569e+00 1.836326e+00 2.064056e+00 2.549360e+00 3.286646e+00 4.267107e+00 5.478792e+00 6.906595e+00 8.532406e+00 1.033527e+01 1.229148e+01 1.437488e+01 1.655709e+01 1.880779e+01 2.109500e+01 2.338552e+01 2.564530e+01 2.783982e+01 2.993462e+01 3.189572e+01 3.369012e+01 3.528637e+01 3.665508e+01 3.776951e+01 3.860600e+01 3.914462e+01 3.936968e+01 3.927016e+01 3.884022e+01 3.807959e+01 3.699390e+01 3.559491e+01 3.390071e+01 3.193572e+01 2.973063e+01 2.732216e+01 2.475272e+01 2.206987e+01 1.932562e+01 1.657559e+01 1.387803e+01 1.129263e+01 8.879271e+00 6.696610e+00 4.800651e+00 3.243189e+00 2.070317e+00 1.320935e+00 1.025351e+00 1.204020e+00 1.866479e+00 3.010499e+00 4.621549e+00 6.672560e+00 9.124084e+00 1.192479e+01 1.501245e+01 1.831521e+01 2.175339e+01 2.524151e+01 2.869078e+01 3.201171e+01 3.511700e+01 3.792453e+01 4.036030e+01 4.236131e+01 4.387820e+01 4.487763e+01 4.534412e+01 4.528148e+01 4.471355e+01 4.368431e+01 4.225729e+01 4.051409e+01 3.855243e+01 3.648329e+01 3.442751e+01 3.251185e+01 3.086472e+01 2.961150e+01 2.886994e+01 2.874557e+01 2.932736e+01 3.068389e+01 3.286009e+01 3.587481e+01 3.971923e+01 4.435634e+01 4.972130e+01 5.572313e+01 6.224706e+01 6.915826e+01 7.630591e+01 8.352829e+01 9.065825e+01 9.752876e+01 1.039786e+02 1.098581e+02 1.150334e+02 1.193918e+02 1.228441e+02 1.253279e+02 1.268084e+02 1.272787e+02 1.267590e+02 1.252942e+02 1.229511e+02 1.198144e+02 1.159827e+02 1.115631e+02 1.066670e+02 1.014047e+02 9.588209e+01 9.019579e+01 8.443112e+01 7.865986e+01 7.293945e+01 6.731264e+01 6.180906e+01 5.644680e+01 5.123486e+01 4.617647e+01 4.127219e+01 3.652334e+01 3.193473e+01 2.751740e+01 2.329025e+01 1.928099e+01 1.552602e+01 1.206935e+01 8.960677e+00 6.252303e+00 3.995664e+00 2.237360e+00 1.014899e+00 3.527213e-01 2.585766e-01 7.206947e-01 1.705941e+00 3.159174e+00 5.003970e+00 7.144789e+00 9.470427e+00 1.185883e+01 1.418289e+01 1.631707e+01 1.814433e+01 1.956316e+01 2.049421e+01 2.088597e+01 2.071941e+01 2.001088e+01 1.881333e+01 1.721552e+01 1.533906e+01 1.333364e+01 1.137032e+01 9.633291e+00 8.310525e+00 7.583718e+00 7.618044e+00 8.552292e+00 1.048994e+01 1.349167e+01 1.756969e+01 2.268447e+01 2.874383e+01 3.560470e+01 4.307761e+01 5.093341e+01 5.891253e+01 6.673560e+01 7.411573e+01 8.077122e+01 8.643857e+01 9.088470e+01 9.391820e+01 9.539867e+01 9.524408e+01 9.343520e+01 9.001770e+01 8.510059e+01 7.885271e+01 7.149571e+01 6.329501e+01 5.454888e+01 4.557576e+01 3.670129e+01 2.824439e+01 2.050454e+01 1.374939e+01 8.204422e+00 4.044366e+00 1.386960e+00 2.894280e-01 7.475513e-01 2.697438e+00 6.019784e+00 1.054637e+01 1.606849e+01 2.234671e+01 2.912169e+01 3.612530e+01 4.309181e+01 4.976834e+01 5.592434e+01 6.135966e+01 6.591092e+01 6.945596e+01 7.191644e+01 7.325809e+01 7.348946e+01 7.265860e+01 7.084851e+01 6.817131e+01 6.476153e+01 6.076895e+01 5.635140e+01 5.166766e+01 4.687100e+01 4.210340e+01 3.749086e+01 3.313978e+01 2.913459e+01 2.553658e+01 2.238386e+01 1.969251e+01 1.745852e+01 1.566051e+01 1.426303e+01 1.322016e+01 1.247916e+01 1.198412e+01 1.167930e+01 1.151207e+01 1.143532e+01 1.140926e+01 1.140259e+01 1.139308e+01 1.136744e+01 1.132077e+01 1.125548e+01 1.117991e+01 1.110673e+01 1.105116e+01 1.102932e+01 1.105657e+01 1.114610e+01 1.130784e+01 1.154760e+01 1.186663e+01 1.226147e+01 1.272425e+01 1.324314e+01 1.380320e+01 1.438731e+01 1.497730e+01 1.555503e+01 1.610365e+01 1.660848e+01 1.705802e+01 1.744453e+01 1.776463e+01 1.801937e+01 1.821424e+01 1.835891e+01 1.846661e+01 1.855346e+01 1.863760e+01 1.873814e+01 1.887413e+01 1.906349e+01 1.932203e+01 1.966252e+01 2.009386e+01 2.062056e+01 2.124224e+01 2.195350e+01 2.274390e+01 2.359822e+01 2.449688e+01 2.541658e+01 2.633108e+01 2.721206e+01 2.803018e+01 2.875602e+01 2.936117e+01 2.981922e+01 3.010669e+01 3.020389e+01 3.009558e+01 2.977160e+01 2.922724e+01 2.846352e+01 2.748720e+01 2.631075e+01 2.495206e+01 5.141373e+01 5.104659e+01 5.045236e+01 4.963486e+01 4.860009e+01 4.735620e+01 4.591343e+01 4.428405e+01 4.248235e+01 4.052438e+01 3.842803e+01 3.621268e+01 3.389917e+01 3.150959e+01 2.906711e+01 2.659566e+01 2.411981e+01 2.166446e+01 1.925462e+01 1.691508e+01 1.467022e+01 1.254366e+01 1.055803e+01 8.734663e+00 7.093298e+00 5.651912e+00 4.426362e+00 3.430228e+00 2.674567e+00 2.167740e+00 1.915249e+00 1.919591e+00 2.180171e+00 2.693223e+00 3.451795e+00 4.445721e+00 5.661680e+00 7.083293e+00 8.691203e+00 1.046326e+01 1.237469e+01 1.439838e+01 1.650510e+01 1.866384e+01 2.084213e+01 2.300647e+01 2.512272e+01 2.715657e+01 2.907399e+01 3.084176e+01 3.242797e+01 3.380266e+01 3.493828e+01 3.581028e+01 3.639770e+01 3.668370e+01 3.665608e+01 3.630776e+01 3.563723e+01 3.464893e+01 3.335345e+01 3.176782e+01 2.991556e+01 2.782652e+01 2.553683e+01 2.308843e+01 2.052862e+01 1.790932e+01 1.528626e+01 1.271792e+01 1.026440e+01 7.986064e+00 5.942129e+00 4.189144e+00 2.779433e+00 1.759515e+00 1.168549e+00 1.036901e+00 1.384818e+00 2.221308e+00 3.543273e+00 5.334927e+00 7.567551e+00 1.019966e+01 1.317754e+01 1.643620e+01 1.990079e+01 2.348841e+01 2.711026e+01 3.067421e+01 3.408755e+01 3.726002e+01 4.010686e+01 4.255195e+01 4.453076e+01 4.599319e+01 4.690586e+01 4.725420e+01 4.704385e+01 4.630141e+01 4.507452e+01 4.343122e+01 4.145848e+01 3.925996e+01 3.695311e+01 3.466557e+01 3.253113e+01 3.068503e+01 2.925937e+01 2.837807e+01 2.815220e+01 2.867545e+01 3.002017e+01 3.223400e+01 3.533734e+01 3.932177e+01 4.414950e+01 4.975385e+01 5.604094e+01 6.289231e+01 7.016857e+01 7.771390e+01 8.536118e+01 9.293757e+01 1.002704e+02 1.071929e+02 1.135498e+02 1.192026e+02 1.240337e+02 1.279497e+02 1.308843e+02 1.327990e+02 1.336838e+02 1.335554e+02 1.324556e+02 1.304483e+02 1.276148e+02 1.240500e+02 1.198577e+02 1.151453e+02 1.100194e+02 1.045816e+02 9.892534e+01 9.313239e+01 8.727193e+01 8.139927e+01 7.555667e+01 6.977393e+01 6.407117e+01 5.846081e+01 5.295119e+01 4.754958e+01 4.226552e+01 3.711341e+01 3.211490e+01 2.730015e+01 2.270857e+01 1.838800e+01 1.439329e+01 1.078389e+01 7.620332e+00 4.960380e+00 2.854730e+00 1.342631e+00 4.477692e-01 1.747548e-01 5.064633e-01 1.402509e+00 2.799067e+00 4.610102e+00 6.730106e+00 9.038283e+00 1.140388e+01 1.369267e+01 1.577401e+01 1.752830e+01 1.885418e+01 1.967532e+01 1.994604e+01 1.965575e+01 1.883142e+01 1.753824e+01 1.587816e+01 1.398620e+01 1.202481e+01 1.017634e+01 8.634079e+00 7.592143e+00 7.234884e+00 7.726243e+00 9.199688e+00 1.174929e+01 1.542243e+01 2.021465e+01 2.606688e+01 3.286543e+01 4.044457e+01 4.859209e+01 5.705700e+01 6.555977e+01 7.380388e+01 8.148891e+01 8.832390e+01 9.404058e+01 9.840614e+01 1.012341e+02 1.023936e+02 1.018161e+02 9.949953e+01 9.550888e+01 8.997439e+01 8.308654e+01 7.508833e+01 6.626513e+01 5.693283e+01 4.742471e+01 3.807734e+01 2.921691e+01 2.114592e+01 1.413107e+01 8.393057e+00 4.098386e+00 1.353943e+00 2.040066e-01 6.302152e-01 2.554168e+00 5.842516e+00 1.031425e+01 1.574979e+01 2.190142e+01 2.850431e+01 3.528821e+01 4.198837e+01 4.835606e+01 5.416775e+01 5.923287e+01 6.339949e+01 6.655835e+01 6.864445e+01 6.963712e+01 6.955764e+01 6.846568e+01 6.645400e+01 6.364222e+01 6.016988e+01 5.618912e+01 5.185734e+01 4.733028e+01 4.275574e+01 3.826810e+01 3.398407e+01 2.999949e+01 2.638744e+01 2.319759e+01 2.045667e+01 1.816999e+01 1.632384e+01 1.488851e+01 1.382178e+01 1.307273e+01 1.258541e+01 1.230251e+01 1.216853e+01 1.213262e+01 1.215071e+01 1.218711e+01 1.221539e+01 1.221858e+01 1.218892e+01 1.212690e+01 1.204007e+01 1.194138e+01 1.184750e+01 1.177695e+01 1.174831e+01 1.177868e+01 1.188227e+01 1.206932e+01 1.234539e+01 1.271104e+01 1.316180e+01 1.368855e+01 1.427815e+01 1.491430e+01 1.557867e+01 1.625197e+01 1.691523e+01 1.755082e+01 1.814360e+01 1.868167e+01 1.915711e+01 1.956629e+01 1.991009e+01 2.019377e+01 2.042655e+01 2.062113e+01 2.079284e+01 2.095872e+01 2.113658e+01 2.134395e+01 2.159696e+01 2.190945e+01 2.229214e+01 2.275184e+01 2.329100e+01 2.390729e+01 2.459361e+01 2.533809e+01 2.612451e+01 2.693268e+01 2.773925e+01 2.851843e+01 2.924298e+01 2.988510e+01 3.041759e+01 3.081474e+01 3.105334e+01 3.111349e+01 3.097945e+01 3.064021e+01 3.009001e+01 2.932859e+01 2.836139e+01 2.719951e+01 2.585953e+01 5.266393e+01 5.263860e+01 5.238528e+01 5.190435e+01 5.119833e+01 5.027187e+01 4.913178e+01 4.778691e+01 4.624823e+01 4.452864e+01 4.264296e+01 4.060780e+01 3.844145e+01 3.616365e+01 3.379559e+01 3.135954e+01 2.887881e+01 2.637738e+01 2.387978e+01 2.141080e+01 1.899519e+01 1.665743e+01 1.442149e+01 1.231044e+01 1.034630e+01 8.549640e+00 6.939432e+00 5.532685e+00 4.344292e+00 3.386745e+00 2.669951e+00 2.201068e+00 1.984333e+00 2.020957e+00 2.309022e+00 2.843440e+00 3.615921e+00 4.615005e+00 5.826101e+00 7.231603e+00 8.811004e+00 1.054111e+01 1.239618e+01 1.434827e+01 1.636747e+01 1.842223e+01 2.047980e+01 2.250656e+01 2.446851e+01 2.633175e+01 2.806296e+01 2.962996e+01 3.100225e+01 3.215164e+01 3.305272e+01 3.368354e+01 3.402621e+01 3.406725e+01 3.379842e+01 3.321690e+01 3.232582e+01 3.113458e+01 2.965906e+01 2.792167e+01 2.595141e+01 2.378360e+01 2.145960e+01 1.902631e+01 1.653543e+01 1.404267e+01 1.160664e+01 9.287720e+00 7.146681e+00 5.243230e+00 3.634431e+00 2.373110e+00 1.506207e+00 1.073172e+00 1.104471e+00 1.620202e+00 2.628931e+00 4.126773e+00 6.096797e+00 8.508750e+00 1.131923e+01 1.447220e+01 1.790006e+01 2.152504e+01 2.526110e+01 2.901620e+01 3.269491e+01 3.620134e+01 3.944224e+01 4.233023e+01 4.478702e+01 4.674652e+01 4.815770e+01 4.898715e+01 4.922107e+01 4.886678e+01 4.795347e+01 4.653233e+01 4.467575e+01 4.247586e+01 4.004212e+01 3.749831e+01 3.497875e+01 3.262403e+01 3.057624e+01 2.897401e+01 2.794742e+01 2.761307e+01 2.806941e+01 2.939260e+01 3.163313e+01 3.481311e+01 3.892475e+01 4.392979e+01 4.976006e+01 5.631917e+01 6.348538e+01 7.111527e+01 7.904854e+01 8.711311e+01 9.513101e+01 1.029244e+02 1.103214e+02 1.171618e+02 1.233024e+02 1.286209e+02 1.330201e+02 1.364294e+02 1.388066e+02 1.401380e+02 1.404366e+02 1.397406e+02 1.381094e+02 1.356206e+02 1.323646e+02 1.284403e+02 1.239502e+02 1.189963e+02 1.136752e+02 1.080755e+02 1.022753e+02 9.634013e+01 9.032332e+01 8.426602e+01 7.819869e+01 7.214337e+01 6.611668e+01 6.013271e+01 5.420636e+01 4.835641e+01 4.260791e+01 3.699421e+01 3.155800e+01 2.635125e+01 2.143424e+01 1.687346e+01 1.273861e+01 9.098794e+00 6.018240e+00 3.551641e+00 1.739648e+00 6.047199e-01 1.476920e-01 3.453669e-01 1.149361e+00 2.486417e+00 4.260232e+00 6.354843e+00 8.639461e+00 1.097449e+01 1.321867e+01 1.523660e+01 1.690656e+01 1.812814e+01 1.882887e+01 1.896993e+01 1.855020e+01 1.760828e+01 1.622254e+01 1.450894e+01 1.261646e+01 1.072064e+01 9.015192e+00 7.702175e+00 6.981270e+00 7.038584e+00 8.035660e+00 1.009925e+01 1.331247e+01 1.770778e+01 2.326237e+01 2.989604e+01 3.747215e+01 4.580109e+01 5.464692e+01 6.373616e+01 7.276899e+01 8.143182e+01 8.941109e+01 9.640714e+01 1.021481e+02 1.064025e+02 1.089902e+02 1.097912e+02 1.087522e+02 1.058891e+02 1.012879e+02 9.510097e+01 8.754133e+01 7.887370e+01 6.940385e+01 5.946532e+01 4.940577e+01 3.957253e+01 3.029829e+01 2.188794e+01 1.460633e+01 8.668593e+00 4.232422e+00 1.393129e+00 1.816264e-01 5.651504e-01 2.450728e+00 5.691092e+00 1.009284e+01 1.542607e+01 2.143534e+01 2.785133e+01 3.440227e+01 4.082534e+01 4.687669e+01 5.234063e+01 5.703658e+01 6.082444e+01 6.360789e+01 6.533543e+01 6.599951e+01 6.563372e+01 6.430862e+01 6.212584e+01 5.921157e+01 5.570929e+01 5.177239e+01 4.755678e+01 4.321416e+01 3.888596e+01 3.469825e+01 3.075782e+01 2.714959e+01 2.393512e+01 2.115248e+01 1.881723e+01 1.692432e+01 1.545088e+01 1.435951e+01 1.360204e+01 1.312333e+01 1.286508e+01 1.276937e+01 1.278174e+01 1.285382e+01 1.294521e+01 1.302482e+01 1.307144e+01 1.307370e+01 1.302948e+01 1.294474e+01 1.283207e+01 1.270896e+01 1.259582e+01 1.251420e+01 1.248492e+01 1.252647e+01 1.265373e+01 1.287694e+01 1.320115e+01 1.362591e+01 1.414547e+01 1.474922e+01 1.542244e+01 1.614733e+01 1.690407e+01 1.767212e+01 1.843136e+01 1.916329e+01 1.985201e+01 2.048506e+01 2.105403e+01 2.155488e+01 2.198809e+01 2.235841e+01 2.267450e+01 2.294827e+01 2.319411e+01 2.342798e+01 2.366629e+01 2.392505e+01 2.421875e+01 2.455947e+01 2.495611e+01 2.541377e+01 2.593318e+01 2.651065e+01 2.713790e+01 2.780227e+01 2.848712e+01 2.917242e+01 2.983537e+01 3.045139e+01 3.099486e+01 3.144030e+01 3.176320e+01 3.194105e+01 3.195424e+01 3.178682e+01 3.142722e+01 3.086877e+01 3.011010e+01 2.915531e+01 2.801411e+01 2.670158e+01 5.332630e+01 5.363745e+01 5.372541e+01 5.358734e+01 5.322241e+01 5.263185e+01 5.181901e+01 5.078931e+01 4.955025e+01 4.811141e+01 4.648429e+01 4.468239e+01 4.272100e+01 4.061713e+01 3.838947e+01 3.605803e+01 3.364417e+01 3.117039e+01 2.865996e+01 2.613686e+01 2.362551e+01 2.115045e+01 1.873615e+01 1.640670e+01 1.418552e+01 1.209510e+01 1.015677e+01 8.390308e+00 6.813786e+00 5.443283e+00 4.292632e+00 3.373214e+00 2.693787e+00 2.260278e+00 2.075682e+00 2.139926e+00 2.449809e+00 2.998954e+00 3.777801e+00 4.773664e+00 5.970770e+00 7.350372e+00 8.890938e+00 1.056831e+01 1.235596e+01 1.422522e+01 1.614567e+01 1.808545e+01 2.001164e+01 2.189075e+01 2.368914e+01 2.537355e+01 2.691165e+01 2.827261e+01 2.942759e+01 3.035049e+01 3.101844e+01 3.141246e+01 3.151797e+01 3.132537e+01 3.083060e+01 3.003549e+01 2.894808e+01 2.758303e+01 2.596161e+01 2.411176e+01 2.206791e+01 1.987071e+01 1.756651e+01 1.520666e+01 1.284669e+01 1.054527e+01 8.362944e+00 6.360805e+00 4.598973e+00 3.134990e+00 2.022148e+00 1.307810e+00 1.031739e+00 1.224537e+00 1.906218e+00 3.084982e+00 4.756259e+00 6.902063e+00 9.490727e+00 1.247702e+01 1.580275e+01 1.939779e+01 2.318155e+01 2.706492e+01 3.095270e+01 3.474623e+01 3.834645e+01 4.165714e+01 4.458829e+01 4.705940e+01 4.900273e+01 5.036629e+01 5.111649e+01 5.124017e+01 5.074617e+01 4.966618e+01 4.805470e+01 4.598833e+01 4.356415e+01 4.089724e+01 3.811754e+01 3.536588e+01 3.278952e+01 3.053724e+01 2.875415e+01 2.757640e+01 2.712609e+01 2.750644e+01 2.879756e+01 3.105285e+01 3.429637e+01 3.852124e+01 4.368899e+01 4.973036e+01 5.654689e+01 6.401405e+01 7.198494e+01 8.029524e+01 8.876853e+01 9.722232e+01 1.054740e+02 1.133471e+02 1.206770e+02 1.273157e+02 1.331370e+02 1.380393e+02 1.419481e+02 1.448171e+02 1.466284e+02 1.473909e+02 1.471381e+02 1.459248e+02 1.438232e+02 1.409182e+02 1.373030e+02 1.330742e+02 1.283276e+02 1.231540e+02 1.176366e+02 1.118487e+02 1.058521e+02 9.969741e+01 9.342461e+01 8.706497e+01 8.064307e+01 7.418024e+01 6.769704e+01 6.121712e+01 5.476935e+01 4.839077e+01 4.212767e+01 3.603623e+01 3.018214e+01 2.463901e+01 1.948556e+01 1.480232e+01 1.066726e+01 7.151045e+00 4.312173e+00 2.192285e+00 8.120242e-01 1.677502e-01 2.293982e-01 9.397969e-01 2.215496e+00 3.949271e+00 6.014208e+00 8.269203e+00 1.056581e+01 1.275583e+01 1.469951e+01 1.627373e+01 1.737977e+01 1.795006e+01 1.795371e+01 1.740013e+01 1.634062e+01 1.486769e+01 1.311205e+01 1.123716e+01 9.431887e+00 7.901179e+00 6.855478e+00 6.499251e+00 7.019297e+00 8.573421e+00 1.128012e+01 1.520983e+01 2.037837e+01 2.674279e+01 3.420021e+01 4.258949e+01 5.169599e+01 6.125913e+01 7.098241e+01 8.054559e+01 8.961810e+01 9.787389e+01 1.050056e+02 1.107387e+02 1.148446e+02 1.171510e+02 1.175505e+02 1.160062e+02 1.125541e+02 1.073019e+02 1.004254e+02 9.216092e+01 8.279572e+01 7.265588e+01 6.209264e+01 5.146776e+01 4.113869e+01 3.144402e+01 2.269003e+01 1.513896e+01 8.999447e+00 4.419518e+00 1.482253e+00 2.046964e-01 5.393407e-01 2.378539e+00 5.561258e+00 9.881955e+00 1.510096e+01 2.095587e+01 2.717339e+01 3.348129e+01 3.961932e+01 4.534946e+01 5.046433e+01 5.479395e+01 5.821038e+01 6.063040e+01 6.201578e+01 6.237187e+01 6.174411e+01 6.021314e+01 5.788867e+01 5.490246e+01 5.140094e+01 4.753767e+01 4.346607e+01 3.933286e+01 3.527225e+01 3.140133e+01 2.781649e+01 2.459138e+01 2.177596e+01 1.939678e+01 1.745849e+01 1.594614e+01 1.482827e+01 1.406053e+01 1.358951e+01 1.335671e+01 1.330231e+01 1.336858e+01 1.350286e+01 1.365992e+01 1.380363e+01 1.390798e+01 1.395732e+01 1.394614e+01 1.387804e+01 1.376449e+01 1.362307e+01 1.347557e+01 1.334599e+01 1.325859e+01 1.323609e+01 1.329806e+01 1.345970e+01 1.373093e+01 1.411590e+01 1.461289e+01 1.521452e+01 1.590844e+01 1.667809e+01 1.750387e+01 1.836428e+01 1.923725e+01 2.010133e+01 2.093688e+01 2.172703e+01 2.245854e+01 2.312232e+01 2.371370e+01 2.423254e+01 2.468297e+01 2.507289e+01 2.541340e+01 2.571791e+01 2.600120e+01 2.627850e+01 2.656441e+01 2.687196e+01 2.721182e+01 2.759143e+01 2.801457e+01 2.848091e+01 2.898584e+01 2.952057e+01 3.007230e+01 3.062467e+01 3.115840e+01 3.165201e+01 3.208268e+01 3.242710e+01 3.266253e+01 3.276768e+01 3.272362e+01 3.251461e+01 3.212882e+01 3.155893e+01 3.080258e+01 2.986263e+01 2.874733e+01 2.747025e+01 5.340706e+01 5.403971e+01 5.445927e+01 5.465988e+01 5.463762e+01 5.439047e+01 5.391849e+01 5.322371e+01 5.231018e+01 5.118405e+01 4.985345e+01 4.832851e+01 4.662132e+01 4.474578e+01 4.271763e+01 4.055422e+01 3.827446e