# vtk DataFile Version 2.0
Generated by image_util write_vtk()
ASCII
DATASET STRUCTURED_POINTS
DIMENSIONS 325 335 1
ORIGIN 0 0 0
SPACING 1 1 1
POINT_DATA 108875
SCALARS intensity float 1
LOOKUP_TABLE default
0.000000e+00 0.000000e+00 0.000000e+00 0.000000e+00 4.973817e+00 0.000000e+00 0.000000e+00 1.124308e+03 2.374396e+00 1.122630e+03 2.561389e-01 0.000000e+00 0.000000e+00 0.000000e+00 3.465249e+00 2.908456e-01 2.724441e+00 1.000361e-01 1.656304e+00 0.000000e+00 3.168227e+00 5.791170e-01 8.987603e-01 6.490956e-01 0.000000e+00 0.000000e+00 0.000000e+00 0.000000e+00 3.787259e+00 3.830570e+00 1.012359e+00 0.000000e+00 1.892743e+00 4.362385e+00 0.000000e+00 0.000000e+00 3.374760e-01 0.000000e+00 4.670342e+00 0.000000e+00 2.964242e+00 0.000000e+00 2.966191e+00 0.000000e+00 1.663387e+00 6.537029e+00 1.121038e+03 1.225102e+00 1.687588e+00 1.255395e+00 0.000000e+00 0.000000e+00 0.000000e+00 0.000000e+00 1.881193e+00 3.310912e+00 0.000000e+00 7.936967e+00 1.209008e+00 8.570964e+00 1.246359e+00 1.940277e+00 2.641262e-01 1.574254e+00 0.000000e+00 0.000000e+00 1.215407e+00 1.072359e+00 0.000000e+00 1.368502e+00 4.075020e+00 0.000000e+00 0.000000e+00 0.000000e+00 4.723712e+00 0.000000e+00 0.000000e+00 2.470394e+00 6.526423e-01 5.739818e+00 0.000000e+00 2.807329e+00 0.000000e+00 0.000000e+00 0.000000e+00 5.556404e+00 0.000000e+00 3.572551e+00 1.970271e+00 3.474941e+00 0.000000e+00 1.046833e+00 6.936858e-01 4.662399e-01 0.000000e+00 1.714277e+00 3.255514e+00 0.000000e+00 0.000000e+00 0.000000e+00 0.000000e+00 0.000000e+00 1.566900e+00 4.223398e+00 0.000000e+00 3.471365e-01 2.070529e+00 0.000000e+00 1.915154e+00 0.000000e+00 0.000000e+00 1.365427e+00 2.645262e+00 2.485966e+00 1.120057e+03 0.000000e+00 0.000000e+00 0.000000e+00 0.000000e+00 0.000000e+00 0.000000e+00 4.530037e-01 0.000000e+00 3.390539e+00 0.000000e+00 4.216931e-01 0.000000e+00 0.000000e+00 5.588554e+00 5.400086e+00 0.000000e+00 5.045589e+00 0.000000e+00 1.978374e-01 0.000000e+00 0.000000e+00 3.664709e+00 1.671532e+00 0.000000e+00 3.897198e+00 2.669548e+00 1.825961e+00 4.526978e+00 0.000000e+00 5.869622e+00 0.000000e+00 2.100583e+00 1.827209e+00 8.183023e+00 1.141197e+00 1.510311e+00 0.000000e+00 0.000000e+00 0.000000e+00 2.517982e+00 4.276275e+00 0.000000e+00 5.864633e+00 1.119701e+00 3.355018e+00 0.000000e+00 0.000000e+00 0.000000e+00 1.492786e+00 2.327588e+00 3.182543e-01 5.471662e+00 0.000000e+00 0.000000e+00 0.000000e+00 0.000000e+00 0.000000e+00 4.792463e-01 2.666203e+00 0.000000e+00 5.878043e+00 0.000000e+00 3.521614e+00 0.000000e+00 0.000000e+00 0.000000e+00 0.000000e+00 0.000000e+00 2.532392e+00 2.383577e+00 5.993254e-01 1.540949e+00 2.843922e+00 0.000000e+00 0.000000e+00 4.242841e+00 4.055457e+00 0.000000e+00 2.505746e-02 3.755383e+00 1.996158e+00 7.076135e-01 4.600832e+00 2.805902e+00 0.000000e+00 0.000000e+00 0.000000e+00 0.000000e+00 0.000000e+00 0.000000e+00 3.284117e-02 0.000000e+00 0.000000e+00 0.000000e+00 6.626212e+00 0.000000e+00 0.000000e+00 6.941241e+00 1.123846e+03 0.000000e+00 0.000000e+00 3.121413e+00 3.159510e+00 0.000000e+00 0.000000e+00 1.248048e+00 7.319543e-01 0.000000e+00 2.337286e+00 0.000000e+00 0.000000e+00 0.000000e+00 0.000000e+00 0.000000e+00 9.770880e-01 7.912068e-01 1.770118e-01 1.051521e+00 6.381058e-01 0.000000e+00 8.207929e-01 1.119101e+03 8.288745e-01 0.000000e+00 0.000000e+00 1.121879e+03 1.932216e+00 1.125669e+03 0.000000e+00 0.000000e+00 0.000000e+00 9.655890e-01 1.281668e-01 8.116918e+00 0.000000e+00 0.000000e+00 5.195296e+00 0.000000e+00 0.000000e+00 1.843767e+00 0.000000e+00 1.717776e+00 1.008958e+00 0.000000e+00 0.000000e+00 4.170741e+00 0.000000e+00 2.043950e-01 1.083353e+00 2.120583e-02 3.135964e+00 2.918232e+00 0.000000e+00 0.000000e+00 0.000000e+00 0.000000e+00 1.599340e-01 0.000000e+00 0.000000e+00 6.174892e-01 1.857925e+00 0.000000e+00 5.144617e-01 3.326857e-01 6.994940e+00 1.660055e+00 9.960579e-01 1.938328e+00 3.168292e+00 0.000000e+00 2.562955e+00 5.050368e+00 7.961048e-01 0.000000e+00 0.000000e+00 0.000000e+00 1.623563e-01 1.644099e-01 5.426707e+00 7.627188e-01 0.000000e+00 2.327025e+00 0.000000e+00 1.596613e+00 0.000000e+00 3.017673e+00 0.000000e+00 0.000000e+00 3.505460e+00 0.000000e+00 0.000000e+00 7.433937e-01 3.681679e+00 0.000000e+00 0.000000e+00 3.366821e+00 8.247468e+00 2.352979e-02 5.860168e+00 0.000000e+00 0.000000e+00 0.000000e+00 0.000000e+00 2.817144e+00 3.341088e-02 0.000000e+00 2.612021e+00 0.000000e+00 6.429943e-01 0.000000e+00 0.000000e+00 8.401546e+00 1.331417e+00 3.040631e+00 2.508106e+00 2.595857e+00 2.056635e+00 8.546078e-02 4.402133e+00 0.000000e+00 3.713489e-01 3.634675e+00 5.141718e-01 1.560341e-01 0.000000e+00 3.418482e+00 0.000000e+00 0.000000e+00 0.000000e+00 0.000000e+00 0.000000e+00 2.473200e+00 0.000000e+00 0.000000e+00 0.000000e+00 4.874110e+00 0.000000e+00 6.406039e+00 9.158775e-01 0.000000e+00 0.000000e+00 0.000000e+00 4.520739e+00 3.010833e+00 3.037936e+00 0.000000e+00 7.203393e-01 1.272320e+00 2.540712e+00 2.423262e+00 0.000000e+00 1.384706e-01 1.795468e+00 6.734444e-01 4.021765e-01 4.120255e+00 0.000000e+00 0.000000e+00 4.529947e+00 5.419635e+00 1.118837e+03 0.000000e+00 0.000000e+00 2.191214e+00 0.000000e+00 0.000000e+00 7.122282e-01 0.000000e+00 0.000000e+00 0.000000e+00 0.000000e+00 3.965569e-01 4.772066e+00 0.000000e+00 4.979863e+00 4.701503e+00 3.145389e+00 0.000000e+00 1.196252e+00 0.000000e+00 0.000000e+00 0.000000e+00 3.638768e-01 0.000000e+00 2.073108e+00 0.000000e+00 0.000000e+00 0.000000e+00 3.561686e-01 1.381162e+00 3.307887e+00 5.476000e-01 0.000000e+00 0.000000e+00 4.625800e+00 2.909257e+00 1.619316e+00 1.943211e+00 3.179664e+00 2.460802e+00 8.317213e+00 6.332475e+00 0.000000e+00 3.050632e+00 0.000000e+00 0.000000e+00 0.000000e+00 0.000000e+00 0.000000e+00 0.000000e+00 0.000000e+00 0.000000e+00 3.275633e-01 3.678823e+00 0.000000e+00 0.000000e+00 2.228029e+00 1.121639e+03 0.000000e+00 0.000000e+00 0.000000e+00 0.000000e+00 2.657439e+00 0.000000e+00 1.121263e+03 1.198614e+00 0.000000e+00 4.886786e+00 1.125981e+03 3.729504e+00 0.000000e+00 2.301081e+00 0.000000e+00 0.000000e+00 0.000000e+00 2.267493e+00 2.515143e+00 0.000000e+00 5.966157e+00 0.000000e+00 0.000000e+00 0.000000e+00 2.873374e+00 1.234580e+00 3.671914e+00 4.626063e+00 1.912480e+00 3.424233e+00 0.000000e+00 0.000000e+00 1.554966e+00 1.119073e+03 0.000000e+00 2.651288e+00 1.568643e+00 0.000000e+00 1.028433e+00 0.000000e+00 0.000000e+00 3.109197e+00 0.000000e+00 0.000000e+00 0.000000e+00 0.000000e+00 1.663239e+00 4.388141e-01 0.000000e+00 0.000000e+00 0.000000e+00 0.000000e+00 3.205137e+00 5.747365e+00 1.518896e+00 0.000000e+00 5.720243e-01 0.000000e+00 6.092059e+00 6.329726e+00 1.184700e+00 7.571617e+00 4.215294e+00 4.289095e+00 0.000000e+00 1.320303e+00 0.000000e+00 0.000000e+00 5.008410e+00 0.000000e+00 2.719689e+00 0.000000e+00 0.000000e+00 0.000000e+00 0.000000e+00 0.000000e+00 0.000000e+00 2.846630e+00 4.930640e+00 0.000000e+00 2.590968e+00 0.000000e+00 0.000000e+00 1.304937e+00 0.000000e+00 1.120459e+03 6.023352e+00 0.000000e+00 1.405338e-01 5.567987e-02 2.856492e+00 0.000000e+00 3.560974e+00 3.184302e+00 1.585650e+00 1.263993e+00 0.000000e+00 2.183406e+00 0.000000e+00 0.000000e+00 4.477525e-01 0.000000e+00 2.231280e+00 1.120255e+03 3.161504e+00 1.780132e+00 1.146147e+00 7.226713e-01 3.434685e+00 3.231856e+00 1.371002e+00 0.000000e+00 7.999754e-01 0.000000e+00 0.000000e+00 0.000000e+00 1.554939e-01 6.182559e+00 1.784168e+00 2.202111e+00 0.000000e+00 0.000000e+00 3.626642e+00 1.863438e+00 7.339836e+00 4.214700e+00 1.124222e+03 7.055686e-01 0.000000e+00 1.236674e+00 8.733604e-01 3.784676e+00 0.000000e+00 3.107910e+00 0.000000e+00 0.000000e+00 0.000000e+00 0.000000e+00 0.000000e+00 0.000000e+00 0.000000e+00 5.664938e+00 0.000000e+00 0.000000e+00 0.000000e+00 1.379320e-01 1.898271e+00 0.000000e+00 1.738991e+00 0.000000e+00 0.000000e+00 0.000000e+00 0.000000e+00 2.609430e+00 0.000000e+00 0.000000e+00 1.229810e+00 1.713090e+00 0.000000e+00 1.150463e+00 0.000000e+00 0.000000e+00 0.000000e+00 0.000000e+00 2.060889e+00 0.000000e+00 0.000000e+00 6.095660e+00 9.342069e-03 0.000000e+00 0.000000e+00 0.000000e+00 2.921223e+00 0.000000e+00 2.353229e+00 2.276347e+00 0.000000e+00 0.000000e+00 0.000000e+00 1.905485e+00 0.000000e+00 0.000000e+00 0.000000e+00 3.496302e+00 0.000000e+00 2.113239e+00 0.000000e+00 0.000000e+00 2.242171e+00 0.000000e+00 0.000000e+00 6.928927e+00 2.489341e+00 1.751907e+00 4.964439e+00 6.974203e-01 0.000000e+00 0.000000e+00 0.000000e+00 0.000000e+00 4.845123e+00 1.030485e+00 0.000000e+00 0.000000e+00 0.000000e+00 6.388469e-01 3.074249e-01 0.000000e+00 0.000000e+00 3.979271e+00 1.123304e+03 2.077526e+00 1.084697e+00 4.333491e+00 0.000000e+00 7.135883e+00 0.000000e+00 3.317834e+00 0.000000e+00 7.507987e+00 1.690719e+00 3.159225e+00 2.098255e+00 0.000000e+00 0.000000e+00 6.807841e+00 4.936757e+00 0.000000e+00 0.000000e+00 0.000000e+00 0.000000e+00 2.082680e-01 0.000000e+00 0.000000e+00 5.725319e+00 0.000000e+00 0.000000e+00 0.000000e+00 0.000000e+00 1.930453e+00 0.000000e+00 5.737473e-01 0.000000e+00 6.117309e+00 4.719788e-01 0.000000e+00 1.466829e+00 2.305414e+00 1.736367e+00 3.685658e+00 2.211849e+00 2.565555e+00 0.000000e+00 0.000000e+00 8.005755e-01 0.000000e+00 0.000000e+00 7.826614e-01 0.000000e+00 5.918750e+00 6.441118e+00 0.000000e+00 1.123260e+03 4.124233e+00 1.102021e+00 3.365037e+00 0.000000e+00 2.745816e+00 0.000000e+00 0.000000e+00 0.000000e+00 1.772464e+00 2.477956e+00 0.000000e+00 6.271950e-01 2.418565e-01 2.638996e+00 1.541038e+00 0.000000e+00 0.000000e+00 0.000000e+00 0.000000e+00 1.099875e-01 0.000000e+00 0.000000e+00 3.083090e+00 0.000000e+00 0.000000e+00 0.000000e+00 3.525863e+00 4.978540e-01 5.146088e-01 0.000000e+00 0.000000e+00 0.000000e+00 0.000000e+00 0.000000e+00 1.357475e+00 2.190356e+00 0.000000e+00 1.764469e+00 0.000000e+00 0.000000e+00 0.000000e+00 0.000000e+00 2.191120e+00 0.000000e+00 2.798112e+00 2.041510e+00 0.000000e+00 0.000000e+00 0.000000e+00 2.210538e+00 1.333560e+00 4.074332e-01 0.000000e+00 5.522328e-01 0.000000e+00 0.000000e+00 0.000000e+00 0.000000e+00 2.832110e+00 5.227780e-01 0.000000e+00 0.000000e+00 0.000000e+00 2.068089e+00 0.000000e+00 2.302735e-01 0.000000e+00 0.000000e+00 2.157657e+00 6.244018e+00 0.000000e+00 6.296537e-01 1.847148e+00 1.682642e+00 3.999432e+00 2.410934e-01 1.126563e+03 0.000000e+00 1.122438e+03 2.773024e-01 9.224748e-01 0.000000e+00 3.790783e+00 0.000000e+00 2.597480e+00 0.000000e+00 0.000000e+00 2.374647e-01 1.803904e+00 0.000000e+00 1.122445e+03 0.000000e+00 1.863576e+00 4.135503e-01 2.930380e-01 2.534877e+00 0.000000e+00 0.000000e+00 1.121207e+03 1.121597e+03 2.637187e+00 1.201862e+00 2.454206e+00 0.000000e+00 4.492472e+00 9.024830e-01 4.703629e+00 6.010704e+00 2.410724e-01 2.939609e+00 2.959437e+00 5.364727e-01 0.000000e+00 0.000000e+00 1.150903e+00 0.000000e+00 4.858289e+00 1.384747e+00 1.399012e+00 1.195958e+00 5.435902e+00 2.471962e+00 0.000000e+00 0.000000e+00 1.676466e+00 2.272728e+00 0.000000e+00 0.000000e+00 0.000000e+00 0.000000e+00 0.000000e+00 2.016370e+00 0.000000e+00 3.836117e+00 0.000000e+00 0.000000e+00 2.761071e+00 1.629242e-01 8.321074e-01 3.460987e-02 1.801767e+00 1.285286e+00 7.561278e-02 0.000000e+00 0.000000e+00 0.000000e+00 9.456924e+00 1.554907e+00 0.000000e+00 8.601850e+00 2.062946e+00 1.039795e+00 1.115616e-01 4.206192e+00 1.026040e+00 0.000000e+00 1.139490e+00 5.638855e+00 5.340387e-01 4.277141e+00 0.000000e+00 0.000000e+00 5.131469e+00 0.000000e+00 0.000000e+00 3.756818e+00 3.749025e-01 0.000000e+00 0.000000e+00 0.000000e+00 7.035889e-01 5.355803e+00 2.249203e+00 2.565966e+00 3.888884e+00 0.000000e+00 0.000000e+00 0.000000e+00 3.312746e+00 0.000000e+00 0.000000e+00 0.000000e+00 3.722456e+00 0.000000e+00 0.000000e+00 0.000000e+00 3.597822e-01 2.454051e+00 6.384090e+00 0.000000e+00 4.714602e-01 3.513127e+00 3.102554e+00 0.000000e+00 0.000000e+00 0.000000e+00 6.453521e-01 7.284737e+00 0.000000e+00 0.000000e+00 0.000000e+00 0.000000e+00 3.949861e+00 0.000000e+00 0.000000e+00 1.425572e+00 9.254206e-01 2.080018e+00 7.134470e+00 0.000000e+00 1.684883e+00 0.000000e+00 0.000000e+00 1.864910e+00 7.721736e-01 0.000000e+00 0.000000e+00 3.432847e+00 7.662295e-01 3.697729e+00 0.000000e+00 1.829343e+00 1.779511e+00 3.006394e+00 8.420950e-01 1.779615e+00 0.000000e+00 1.122606e+03 0.000000e+00 9.828658e-01 0.000000e+00 0.000000e+00 0.000000e+00 3.682456e-01 0.000000e+00 0.000000e+00 0.000000e+00 0.000000e+00 0.000000e+00 9.125173e-01 0.000000e+00 0.000000e+00 1.187987e+00 2.228040e+00 3.371054e-02 3.384708e+00 0.000000e+00 0.000000e+00 0.000000e+00 1.022379e+00 0.000000e+00 0.000000e+00 0.000000e+00 0.000000e+00 0.000000e+00 0.000000e+00 0.000000e+00 0.000000e+00 0.000000e+00 3.357008e+00 6.121134e-02 2.984412e+00 0.000000e+00 2.814453e+00 0.000000e+00 3.800116e+00 8.864602e-01 4.133306e+00 3.669508e+00 4.400922e+00 2.988153e+00 1.637208e+00 0.000000e+00 0.000000e+00 0.000000e+00 1.936332e+00 7.316924e-01 5.272825e+00 5.034061e+00 1.950252e+00 6.745285e+00 0.000000e+00 6.104340e+00 0.000000e+00 3.429559e+00 1.746065e+00 4.251606e-01 0.000000e+00 1.426572e+00 0.000000e+00 0.000000e+00 1.542779e+00 0.000000e+00 8.291950e-01 5.168495e-01 0.000000e+00 1.287304e+00 0.000000e+00 1.283807e+00 0.000000e+00 0.000000e+00 0.000000e+00 1.953438e+00 1.494254e+00 1.525625e+00 0.000000e+00 0.000000e+00 0.000000e+00 0.000000e+00 1.779282e+00 6.104454e+00 1.619640e+00 0.000000e+00 0.000000e+00 0.000000e+00 4.101251e+00 1.324617e+00 0.000000e+00 0.000000e+00 6.654215e+00 0.000000e+00 0.000000e+00 1.156120e+00 0.000000e+00 4.793593e+00 2.843891e+00 0.000000e+00 4.130859e+00 0.000000e+00 1.250261e+00 0.000000e+00 0.000000e+00 0.000000e+00 2.935152e+00 0.000000e+00 2.715211e+00 3.433598e+00 0.000000e+00 0.000000e+00 0.000000e+00 5.927319e+00 0.000000e+00 1.826051e-01 0.000000e+00 4.755191e+00 0.000000e+00 0.000000e+00 3.245806e+00 4.528756e+00 1.987766e-01 0.000000e+00 0.000000e+00 0.000000e+00 2.275234e+00 0.000000e+00 2.949044e+00 0.000000e+00 0.000000e+00 4.425094e+00 8.646649e-01 0.000000e+00 1.922381e-01 6.669346e+00 0.000000e+00 5.860287e-01 1.961248e+00 0.000000e+00 0.000000e+00 0.000000e+00 0.000000e+00 0.000000e+00 0.000000e+00 1.319182e+00 0.000000e+00 1.245674e+00 0.000000e+00 0.000000e+00 0.000000e+00 2.134178e+00 8.745145e+00 0.000000e+00 3.575253e+00 4.792834e+00 0.000000e+00 0.000000e+00 1.482445e+00 1.428534e+00 4.100278e+00 4.065351e+00 9.191077e-01 0.000000e+00 1.505657e+00 0.000000e+00 4.516839e-01 0.000000e+00 0.000000e+00 0.000000e+00 0.000000e+00 4.488382e-01 0.000000e+00 0.000000e+00 1.428777e+00 0.000000e+00 8.196800e-01 2.368623e+00 4.637311e+00 0.000000e+00 0.000000e+00 0.000000e+00 5.136898e+00 0.000000e+00 7.053214e-01 3.729823e+00 0.000000e+00 0.000000e+00 0.000000e+00 3.949401e+00 7.801278e+00 0.000000e+00 7.101814e-01 9.633114e+00 2.334325e+00 2.086110e+00 1.113553e+00 0.000000e+00 0.000000e+00 1.196149e+00 1.391495e+00 0.000000e+00 1.075566e+00 0.000000e+00 0.000000e+00 8.145865e-01 0.000000e+00 0.000000e+00 5.709649e+00 8.409678e-01 0.000000e+00 3.615661e-01 0.000000e+00 0.000000e+00 0.000000e+00 1.573203e+00 0.000000e+00 0.000000e+00 0.000000e+00 0.000000e+00 0.000000e+00 0.000000e+00 0.000000e+00 3.483764e+00 5.912384e+00 0.000000e+00 7.491989e+00 0.000000e+00 0.000000e+00 3.327882e+00 0.000000e+00 2.314423e+00 9.729910e-01 6.130423e+00 2.762602e+00 0.000000e+00 4.264402e+00 4.071807e+00 0.000000e+00 0.000000e+00 7.549212e+00 1.846192e+00 2.470232e+00 6.812116e+00 0.000000e+00 0.000000e+00 1.898084e+00 0.000000e+00 0.000000e+00 2.659567e+00 2.337181e+00 1.125617e+03 2.866500e-01 0.000000e+00 0.000000e+00 0.000000e+00 0.000000e+00 6.703492e+00 0.000000e+00 0.000000e+00 3.349269e+00 7.442552e-01 1.546084e+00 1.275132e-02 6.637774e-01 0.000000e+00 0.000000e+00 4.398949e+00 0.000000e+00 3.762338e+00 0.000000e+00 6.266804e+00 0.000000e+00 0.000000e+00 0.000000e+00 0.000000e+00 8.285307e-01 7.905891e-01 0.000000e+00 1.726615e+00 0.000000e+00 5.342441e+00 0.000000e+00 1.125528e+03 1.121542e+03 1.425080e+00 0.000000e+00 3.553890e+00 2.902808e+00 2.123446e+00 7.460985e-02 5.178287e-01 0.000000e+00 0.000000e+00 0.000000e+00 1.005593e+00 1.554943e-02 0.000000e+00 0.000000e+00 0.000000e+00 4.795542e-01 0.000000e+00 0.000000e+00 3.756013e+00 6.573643e+00 2.389165e+00 0.000000e+00 0.000000e+00 1.519059e+00 1.807055e+00 0.000000e+00 0.000000e+00 2.509213e-02 0.000000e+00 0.000000e+00 0.000000e+00 2.090655e+00 2.661648e-02 0.000000e+00 2.920258e+00 0.000000e+00 0.000000e+00 0.000000e+00 0.000000e+00 0.000000e+00 2.243116e+00 0.000000e+00 1.197225e+00 0.000000e+00 4.513546e+00 6.245443e+00 5.664496e-01 6.768269e-01 3.721467e+00 0.000000e+00 0.000000e+00 0.000000e+00 3.526527e+00 0.000000e+00 1.229843e+00 0.000000e+00 0.000000e+00 0.000000e+00 1.670713e+00 3.170636e+00 0.000000e+00 2.492021e+00 0.000000e+00 2.592819e+00 0.000000e+00 9.144340e-02 0.000000e+00 0.000000e+00 0.000000e+00 5.961399e-01 0.000000e+00 0.000000e+00 0.000000e+00 5.569986e+00 1.118621e+03 1.678793e-02 3.830997e+00 5.797187e-02 2.099319e-01 5.232269e+00 1.346452e+00 3.273038e+00 1.617018e+00 0.000000e+00 1.447658e+00 0.000000e+00 0.000000e+00 7.896007e-01 0.000000e+00 9.569929e-01 1.203527e-01 0.000000e+00 0.000000e+00 0.000000e+00 2.580146e+00 4.152676e-01 2.844363e+00 2.252581e+03 3.501948e-01 4.040754e+00 0.000000e+00 2.541018e+00 0.000000e+00 0.000000e+00 4.562024e+00 0.000000e+00 5.027294e+00 0.000000e+00 0.000000e+00 0.000000e+00 4.503655e+00 0.000000e+00 9.811744e-03 4.359807e+00 0.000000e+00 0.000000e+00 3.127598e+00 9.737423e-01 6.151464e+00 0.000000e+00 0.000000e+00 5.102122e-01 0.000000e+00 6.953031e-01 2.919921e+00 4.816515e+00 0.000000e+00 0.000000e+00 2.367898e+00 4.770482e-01 0.000000e+00 1.019498e+00 0.000000e+00 2.885825e+00 3.304123e+00 0.000000e+00 3.598005e+00 0.000000e+00 0.000000e+00 9.008533e-01 1.573174e+00 0.000000e+00 0.000000e+00 0.000000e+00 2.701628e+00 0.000000e+00 0.000000e+00 0.000000e+00 4.783722e+00 9.964493e-01 0.000000e+00 1.069285e+00 4.719591e-01 2.299783e+00 0.000000e+00 4.524626e+00 0.000000e+00 4.505969e+00 2.698940e+00 5.353076e+00 9.422451e-01 0.000000e+00 2.359352e+00 2.464593e-01 0.000000e+00 0.000000e+00 1.239824e+00 5.228446e+00 3.511828e-01 0.000000e+00 4.420237e+00 0.000000e+00 0.000000e+00 5.143189e-01 0.000000e+00 0.000000e+00 4.563538e+00 0.000000e+00 4.460918e+00 1.629558e+00 0.000000e+00 0.000000e+00 8.822067e+00 0.000000e+00 0.000000e+00 3.091148e+00 3.312957e+00 2.377708e+00 0.000000e+00 2.845281e+00 7.064754e-01 2.393540e-01 0.000000e+00 0.000000e+00 0.000000e+00 1.674447e+00 3.040921e+00 0.000000e+00 0.000000e+00 0.000000e+00 0.000000e+00 0.000000e+00 0.000000e+00 4.708628e+00 4.501912e+00 8.823943e-01 2.917942e+00 5.297991e+00 0.000000e+00 0.000000e+00 3.445850e+00 1.834841e+00 4.107386e+00 0.000000e+00 8.317921e-01 5.192825e+00 0.000000e+00 1.126127e+03 1.572798e-01 6.653268e-01 0.000000e+00 0.000000e+00 0.000000e+00 0.000000e+00 1.887489e+00 0.000000e+00 2.017834e+00 3.070011e-01 9.205723e-01 0.000000e+00 4.028598e+00 0.000000e+00 2.898855e+00 1.120679e+03 4.211761e+00 0.000000e+00 1.789281e+00 3.477843e+00 3.308125e+00 2.321767e+00 0.000000e+00 0.000000e+00 0.000000e+00 1.125894e+03 4.749343e-01 0.000000e+00 2.123105e+00 0.000000e+00 6.244594e-01 0.000000e+00 1.856810e+00 0.000000e+00 3.646888e+00 0.000000e+00 3.262376e+00 0.000000e+00 2.982282e+00 1.879306e+00 3.553643e+00 0.000000e+00 0.000000e+00 2.127393e+00 1.502399e+00 3.695704e+00 6.052741e-01 3.203817e+00 3.147033e-01 0.000000e+00 4.065912e+00 3.471693e+00 0.000000e+00 5.557638e+00 5.450401e+00 1.224915e+00 0.000000e+00 1.123774e+03 1.540756e+00 0.000000e+00 2.185418e+00 1.064034e+00 0.000000e+00 2.021445e+00 6.024271e+00 3.016771e-01 4.979141e+00 9.572222e-01 3.112220e+00 1.955184e+00 0.000000e+00 4.035890e-01 4.083973e+00 3.634781e+00 2.878154e+00 1.803842e+00 7.477881e-01 3.406631e+00 1.120267e+03 0.000000e+00 0.000000e+00 4.851726e+00 0.000000e+00 0.000000e+00 1.278872e+00 2.256521e+00 0.000000e+00 9.762588e-01 0.000000e+00 0.000000e+00 0.000000e+00 0.000000e+00 6.752395e-01 0.000000e+00 2.406549e+00 0.000000e+00 1.702448e+00 5.393789e+00 0.000000e+00 0.000000e+00 0.000000e+00 0.000000e+00 4.211133e+00 0.000000e+00 3.701157e-01 0.000000e+00 0.000000e+00 1.930078e+00 0.000000e+00 3.148070e+00 0.000000e+00 1.123678e+03 5.532697e-01 1.646853e+00 0.000000e+00 0.000000e+00 4.704216e+00 0.000000e+00 1.121302e+03 1.624617e+00 2.048973e+00 4.235473e+00 1.121680e+03 0.000000e+00 0.000000e+00 0.000000e+00 4.771921e+00 0.000000e+00 5.795314e-01 3.007425e+00 0.000000e+00 0.000000e+00 0.000000e+00 2.237066e+00 0.000000e+00 0.000000e+00 0.000000e+00 0.000000e+00 1.140470e+00 0.000000e+00 3.186364e+00 0.000000e+00 4.148005e+00 3.631150e-01 0.000000e+00 0.000000e+00 0.000000e+00 0.000000e+00 4.934663e+00 2.930975e+00 3.529698e+00 5.530048e+00 1.447090e+00 8.665872e-01 3.230109e+00 0.000000e+00 1.386925e+00 3.681756e+00 0.000000e+00 0.000000e+00 0.000000e+00 6.070201e-01 0.000000e+00 0.000000e+00 1.620818e+00 0.000000e+00 0.000000e+00 0.000000e+00 0.000000e+00 0.000000e+00 2.447596e+00 0.000000e+00 0.000000e+00 1.127995e+00 7.610701e-01 1.674443e+00 3.004153e-01 3.994116e-01 1.660060e-01 2.591151e+00 3.143814e+00 6.317365e+00 0.000000e+00 7.406693e-01 0.000000e+00 0.000000e+00 3.795712e+00 0.000000e+00 0.000000e+00 0.000000e+00 3.730586e+00 0.000000e+00 2.358834e+00 2.658836e+00 0.000000e+00 0.000000e+00 0.000000e+00 0.000000e+00 3.726031e+00 5.365754e-01 3.681913e+00 0.000000e+00 0.000000e+00 1.361769e+00 0.000000e+00 0.000000e+00 0.000000e+00 3.499238e+00 8.970936e-01 6.581724e+00 7.425222e+00 2.724090e+00 4.374416e+00 0.000000e+00 0.000000e+00 2.028474e+00 0.000000e+00 0.000000e+00 0.000000e+00 1.929753e+00 3.359530e+00 0.000000e+00 2.535186e+00 0.000000e+00 0.000000e+00 0.000000e+00 0.000000e+00 1.189965e+00 0.000000e+00 1.787992e+00 0.000000e+00 0.000000e+00 0.000000e+00 0.000000e+00 1.683542e+00 4.350173e+00 1.505648e+00 0.000000e+00 4.747453e+00 1.662264e+00 0.000000e+00 0.000000e+00 5.542778e-01 0.000000e+00 0.000000e+00 8.955474e-01 0.000000e+00 3.830743e+00 3.330035e+00 0.000000e+00 0.000000e+00 0.000000e+00 1.302899e-02 0.000000e+00 1.057735e+00 0.000000e+00 0.000000e+00 3.385406e+00 0.000000e+00 0.000000e+00 1.126886e+03 5.085109e-01 0.000000e+00 0.000000e+00 0.000000e+00 0.000000e+00 3.508866e+00 4.063075e+00 2.382436e+00 0.000000e+00 2.567245e+00 0.000000e+00 0.000000e+00 1.221604e-01 0.000000e+00 0.000000e+00 0.000000e+00 0.000000e+00 2.475438e-01 0.000000e+00 0.000000e+00 0.000000e+00 3.632231e+00 0.000000e+00 0.000000e+00 2.485346e-01 0.000000e+00 0.000000e+00 0.000000e+00 2.496087e+00 0.000000e+00 0.000000e+00 2.671009e+00 0.000000e+00 5.236263e+00 5.102988e+00 0.000000e+00 0.000000e+00 0.000000e+00 2.388313e+00 0.000000e+00 7.345669e+00 0.000000e+00 4.453598e+00 4.613971e+00 1.088580e+00 0.000000e+00 0.000000e+00 6.270424e+00 2.592885e+00 0.000000e+00 6.607093e+00 0.000000e+00 0.000000e+00 3.976508e+00 0.000000e+00 0.000000e+00 6.430687e+00 2.569086e+00 6.932778e+00 2.701785e+00 9.748631e-01 0.000000e+00 1.117986e+03 0.000000e+00 0.000000e+00 2.489527e+00 0.000000e+00 7.028427e-01 4.172570e+00 0.000000e+00 8.134981e-01 5.609608e-02 0.000000e+00 0.000000e+00 8.986402e-02 0.000000e+00 2.335578e-01 7.395744e-01 0.000000e+00 0.000000e+00 9.439718e-02 0.000000e+00 3.176811e+00 7.249915e+00 0.000000e+00 1.361648e-01 2.215792e+00 5.050314e-01 1.713887e+00 1.933429e+00 0.000000e+00 1.121150e+03 0.000000e+00 5.402894e+00 7.007903e-01 2.690775e+00 2.593605e+00 2.587202e+00 2.949481e-01 0.000000e+00 0.000000e+00 0.000000e+00 0.000000e+00 1.349715e+00 0.000000e+00 0.000000e+00 4.289836e+00 6.413077e+00 0.000000e+00 0.000000e+00 5.469558e-01 9.799367e-02 0.000000e+00 1.540979e+00 0.000000e+00 0.000000e+00 5.336883e+00 1.118498e+03 0.000000e+00 0.000000e+00 7.023126e+00 0.000000e+00 0.000000e+00 3.051193e-01 4.253737e+00 0.000000e+00 0.000000e+00 0.000000e+00 5.155023e-01 3.735824e+00 3.152531e+00 8.044268e-01 2.690379e+00 3.179887e+00 1.258854e+00 0.000000e+00 4.334731e+00 0.000000e+00 0.000000e+00 3.174359e+00 5.289879e-01 4.312509e+00 0.000000e+00 0.000000e+00 0.000000e+00 3.703657e-02 0.000000e+00 1.085000e+00 0.000000e+00 4.024479e+00 7.459679e-01 1.973340e+00 2.621871e+00 1.246749e+00 3.166846e+00 1.120803e+03 0.000000e+00 0.000000e+00 8.281686e-01 0.000000e+00 1.158980e+00 1.600486e+00 2.451940e+00 9.193598e+00 3.071158e-01 0.000000e+00 0.000000e+00 0.000000e+00 0.000000e+00 0.000000e+00 0.000000e+00 2.247965e+00 0.000000e+00 2.142351e+00 3.004166e-01 3.804840e+00 5.057028e+00 3.992177e+00 4.186539e+00 0.000000e+00 1.123295e+03 4.926911e-01 0.000000e+00 2.519884e+00 3.507298e+00 0.000000e+00 2.753751e+00 0.000000e+00 0.000000e+00 2.138455e+00 0.000000e+00 0.000000e+00 0.000000e+00 8.481923e-01 0.000000e+00 0.000000e+00 1.802094e+00 1.067984e+00 6.477805e+00 0.000000e+00 0.000000e+00 0.000000e+00 2.438503e+00 0.000000e+00 2.688286e+00 3.252975e+00 0.000000e+00 2.050954e+00 3.081609e+00 0.000000e+00 5.021975e+00 0.000000e+00 9.061019e-01 0.000000e+00 2.911235e+00 1.048886e+00 0.000000e+00 0.000000e+00 7.757011e-01 0.000000e+00 0.000000e+00 0.000000e+00 0.000000e+00 1.837532e+00 4.542692e+00 0.000000e+00 0.000000e+00 7.428659e+00 6.789372e-01 2.611481e+00 0.000000e+00 1.134630e+00 4.221341e+00 0.000000e+00 1.173206e+00 0.000000e+00 4.964478e-01 1.379939e-01 0.000000e+00 0.000000e+00 2.477532e+00 1.741752e+00 0.000000e+00 0.000000e+00 0.000000e+00 3.042464e+00 0.000000e+00 1.469725e+00 0.000000e+00 0.000000e+00 0.000000e+00 0.000000e+00 1.842551e+00 0.000000e+00 4.024766e+00 1.689859e+00 9.321461e-01 2.762470e+00 0.000000e+00 0.000000e+00 2.091305e+00 0.000000e+00 4.705090e+00 6.356185e+00 1.330771e+00 0.000000e+00 1.736977e+00 0.000000e+00 3.963532e+00 1.378808e+00 0.000000e+00 7.219697e+00 2.060424e+00 1.773668e+00 3.404520e+00 3.073970e+00 0.000000e+00 1.195805e+00 0.000000e+00 0.000000e+00 7.852371e-01 0.000000e+00 0.000000e+00 1.327679e+00 0.000000e+00 0.000000e+00 2.535949e+00 0.000000e+00 0.000000e+00 0.000000e+00 0.000000e+00 2.637584e+00 0.000000e+00 0.000000e+00 0.000000e+00 3.959510e-01 4.630968e+00 3.891852e+00 0.000000e+00 4.090270e+00 2.881462e+00 0.000000e+00 0.000000e+00 0.000000e+00 2.792827e+00 1.878410e+00 0.000000e+00 2.036597e+00 9.594915e-01 0.000000e+00 1.809124e+00 0.000000e+00 1.593313e-01 0.000000e+00 8.164673e-01 5.577197e+00 7.358015e+00 0.000000e+00 0.000000e+00 0.000000e+00 0.000000e+00 2.029715e+00 1.278884e+00 0.000000e+00 0.000000e+00 0.000000e+00 7.026216e-01 1.999489e+00 3.454263e+00 0.000000e+00 0.000000e+00 0.000000e+00 1.583323e+00 0.000000e+00 2.741317e+00 0.000000e+00 0.000000e+00 9.851640e-01 0.000000e+00 1.699255e+00 0.000000e+00 0.000000e+00 0.000000e+00 0.000000e+00 0.000000e+00 3.735783e-01 2.308640e+00 9.844381e-01 0.000000e+00 0.000000e+00 1.346414e+00 0.000000e+00 0.000000e+00 0.000000e+00 0.000000e+00 1.120696e+03 1.350259e+00 0.000000e+00 5.511109e+00 0.000000e+00 0.000000e+00 7.003780e-01 0.000000e+00 3.809411e+00 1.815025e+00 6.593972e+00 2.653315e+00 4.707504e+00 3.912775e+00 0.000000e+00 1.726264e-01 4.276583e+00 0.000000e+00 2.261859e+00 0.000000e+00 1.671039e+00 0.000000e+00 0.000000e+00 9.677063e-01 4.255458e-01 4.831112e+00 1.853027e+00 4.957751e+00 3.992146e+00 1.838972e+00 1.956799e+00 0.000000e+00 0.000000e+00 5.223444e-01 0.000000e+00 3.737538e+00 6.497320e+00 3.563146e+00 0.000000e+00 0.000000e+00 1.125959e+03 1.734547e+00 1.126525e+03 0.000000e+00 0.000000e+00 0.000000e+00 0.000000e+00 0.000000e+00 0.000000e+00 1.182862e+00 4.231075e+00 0.000000e+00 4.983983e+00 0.000000e+00 0.000000e+00 0.000000e+00 0.000000e+00 2.352946e+00 0.000000e+00 3.454013e-01 1.520108e+00 4.182805e+00 9.396704e-01 0.000000e+00 6.008067e+00 1.121805e+03 0.000000e+00 0.000000e+00 1.196659e+00 0.000000e+00 0.000000e+00 3.390966e+00 2.945999e+00 5.035203e+00 0.000000e+00 1.997405e+00 1.280810e+00 0.000000e+00 1.792979e+00 4.515746e+00 5.660805e-01 3.959866e+00 1.125237e+03 0.000000e+00 2.381081e+00 6.286890e+00 0.000000e+00 0.000000e+00 1.076685e+00 6.928853e-01 0.000000e+00 0.000000e+00 0.000000e+00 0.000000e+00 0.000000e+00 1.862054e+00 3.937744e+00 0.000000e+00 2.376384e+00 0.000000e+00 4.821882e+00 2.282156e+00 0.000000e+00 5.404409e+00 1.031436e+00 0.000000e+00 0.000000e+00 0.000000e+00 1.119610e+03 0.000000e+00 7.467613e+00 0.000000e+00 0.000000e+00 0.000000e+00 2.106064e+00 0.000000e+00 0.000000e+00 1.878462e+00 3.932529e+00 4.190682e+00 0.000000e+00 2.594717e+00 1.587346e+00 3.968240e+00 3.343400e+00 0.000000e+00 1.583916e+00 1.814611e+00 1.120734e+03 9.871619e-01 7.260223e+00 0.000000e+00 2.867060e+00 0.000000e+00 5.590756e+00 4.154854e+00 0.000000e+00 3.672449e+00 0.000000e+00 0.000000e+00 0.000000e+00 7.540749e+00 0.000000e+00 1.140626e+00 2.096705e+00 0.000000e+00 1.007807e+01 1.122160e+03 1.288325e+00 0.000000e+00 0.000000e+00 0.000000e+00 1.561540e+00 0.000000e+00 0.000000e+00 0.000000e+00 3.708319e+00 4.364700e+00 2.106462e+00 0.000000e+00 1.483676e+00 7.977900e+00 0.000000e+00 0.000000e+00 5.630798e-01 6.968988e+00 1.344330e+00 0.000000e+00 1.841335e+00 0.000000e+00 0.000000e+00 0.000000e+00 1.289859e-01 3.768410e+00 0.000000e+00 2.393234e-01 0.000000e+00 1.115309e+03 0.000000e+00 0.000000e+00 0.000000e+00 8.860368e-01 0.000000e+00 3.916969e+00 0.000000e+00 1.859576e+00 1.123153e+03 5.043935e+00 7.827511e-01 8.477145e-01 0.000000e+00 0.000000e+00 0.000000e+00 0.000000e+00 0.000000e+00 0.000000e+00 0.000000e+00 2.629245e+00 2.404596e+00 0.000000e+00 1.807961e+00 9.062974e-01 0.000000e+00 0.000000e+00 0.000000e+00 0.000000e+00 0.000000e+00 4.294655e+00 2.306065e+00 0.000000e+00 0.000000e+00 3.196358e+00 0.000000e+00 0.000000e+00 3.537744e+00 0.000000e+00 1.941646e-01 1.923887e+00 3.145336e+00 0.000000e+00 5.878778e+00 0.000000e+00 0.000000e+00 1.328749e-01 1.426238e+00 1.946674e+00 0.000000e+00 4.283981e+00 1.729620e+00 0.000000e+00 2.076947e+00 0.000000e+00 0.000000e+00 0.000000e+00 0.000000e+00 0.000000e+00 0.000000e+00 0.000000e+00 8.932878e-01 0.000000e+00 0.000000e+00 2.062901e+00 0.000000e+00 0.000000e+00 4.852549e-02 9.857392e-01 4.003174e-01 0.000000e+00 0.000000e+00 2.200788e